# vtk DataFile Version 5.1
vtk output
ASCII
DATASET UNSTRUCTURED_GRID
POINTS 1677 float
4.01327 0.220301 -0.485947 4.01143 0.181583 -0.485986 4.01068 0.20098 -0.485381 
4.01222 0.248134 -0.485261 4.00816 0.201038 -0.48454 4.00984 0.244494 -0.484504 
4.01077 0.28797 -0.484487 4.0072 0.24448 -0.48362 4.00813 0.287881 -0.483602 
4.00835 0.331292 -0.483604 4.00504 0.287777 -0.482567 4.00526 0.3311 -0.482567 
4.00481 0.374423 -0.482585 4.00166 0.330877 -0.481355 4.00121 0.374097 -0.481371 
3.99452 0.413191 -0.481518 3.99699 0.373717 -0.479951 3.99032 0.412707 -0.480099 
3.98311 0.451606 -0.480261 3.98541 0.412141 -0.47844 3.97822 0.45092 -0.478604 
3.97048 0.489587 -0.478782 3.97249 0.450118 -0.476665 3.96478 0.488645 -0.476846 
3.9565 0.527055 -0.477042 3.96217 0.528139 -0.478975 3.95327 0.566557 -0.479184 
3.96702 0.529066 -0.480628 3.9581 0.567604 -0.480834 3.94854 0.605992 -0.481056 
3.96222 0.5685 -0.482244 3.95264 0.60699 -0.482464 3.9424 0.645306 -0.482701 
3.95615 0.607843 -0.483668 3.94588 0.646246 -0.483902 3.93489 0.684448 -0.484155 
3.94886 0.64705 -0.484929 3.93785 0.685326 -0.485178 3.94038 0.686076 -0.486053 
3.95141 0.647737 -0.485807 3.96171 0.609197 -0.485578 3.95915 0.608573 -0.484698 
3.96876 0.569922 -0.484483 3.96575 0.569266 -0.483451 3.97471 0.530538 -0.48325 
3.97116 0.529859 -0.482041 3.97951 0.491085 -0.481853 3.97535 0.490394 -0.480437 
3.98729 0.452194 -0.481678 3.99087 0.452697 -0.48289 3.99811 0.413605 -0.482731 
4.00117 0.41396 -0.483768 4.00789 0.374702 -0.483623 4.01052 0.37494 -0.48451 
4.01098 0.331455 -0.48449 4.01324 0.332805 -0.48525 4.01305 0.289659 -0.485246 
4.01511 0.297799 -0.485907 4.01448 0.259047 -0.48592 4.01517 0.336561 -0.485905 
4.01469 0.375319 -0.485916 4.01277 0.375145 -0.485268 4.00604 0.414524 -0.485413 
4.0038 0.414264 -0.484655 3.99654 0.453495 -0.484813 3.99392 0.453127 -0.483927 
3.98612 0.492181 -0.484098 3.98307 0.491676 -0.483063 3.97774 0.531119 -0.484283 
3.98034 0.531616 -0.485168 3.97134 0.570483 -0.485365 3.97355 0.570962 -0.48612 
3.96391 0.609731 -0.486332 3.95359 0.648325 -0.486558 3.96579 0.610188 -0.486976 
3.95546 0.648828 -0.4872 3.94439 0.687265 -0.48744 3.94255 0.686717 -0.4868 
3.97544 0.571373 -0.486767 3.98445 0.532405 -0.486571 3.98255 0.532041 -0.485924 
3.99095 0.492984 -0.485741 3.98873 0.492614 -0.484984 3.99878 0.453811 -0.485571 
4.00069 0.454081 -0.486219 4.00796 0.414746 -0.486062 3.99286 0.493301 -0.486389 
3.93143 0.683421 -0.482958 3.92738 0.68222 -0.481557 3.93832 0.644206 -0.481296 
3.93355 0.64292 -0.479653 3.94374 0.604825 -0.479409 3.93813 0.60346 -0.477483 
3.94763 0.565332 -0.477254 3.92797 0.641415 -0.477731 3.91709 0.679171 -0.478001 
3.92264 0.680815 -0.479918 3.97966 0.411481 -0.476499 3.9863 0.372755 -0.476345 
3.99207 0.373273 -0.47829 3.99251 0.331505 -0.47828 3.99744 0.330616 -0.479937 
3.99721 0.287515 -0.479941 4.00143 0.287656 -0.481356 4.0005 0.244445 -0.481378 
4.00411 0.244464 -0.482586 4.00244 0.20117 -0.482626 4.00552 0.201099 -0.483657 
4.00305 0.157758 -0.483717 4.00569 0.157622 -0.484597 4.00771 0.153885 -0.485359 
4.00235 0.114266 -0.484679 4.00447 0.112479 -0.485434 4.00572 0.104276 -0.48611 
4.00018 0.0695455 -0.485539 4.00173 0.0657217 -0.486197 3.99688 0.0272646 -0.486302 
3.99497 0.0275272 -0.485668 3.99273 0.0278344 -0.484927 3.99806 0.0709923 -0.484787 
3.99544 0.0712772 -0.483914 3.99971 0.114476 -0.483802 3.99663 0.114722 -0.482777 
3.99996 0.157917 -0.482689 3.99636 0.158103 -0.481486 3.99883 0.201254 -0.48142 
3.99461 0.201352 -0.480011 3.99628 0.244423 -0.479965 3.99146 0.247977 -0.478313 
3.9923 0.288941 -0.478287 3.98666 0.296668 -0.47636 3.98674 0.334713 -0.476346 
3.98602 0.25863 -0.476388 3.98481 0.220603 -0.476432 3.98891 0.201485 -0.478106 
3.98698 0.155003 -0.478448 3.98299 0.182602 -0.476492 3.98052 0.144638 -0.47657 
3.97735 0.106727 -0.476669 3.98377 0.114156 -0.478545 3.98883 0.115348 -0.480177 
3.97954 0.071804 -0.478678 3.98457 0.0724569 -0.480304 3.98877 0.0720006 -0.4817 
3.97928 0.0296817 -0.480468 3.98347 0.0291062 -0.481857 3.98705 0.0286143 -0.483044 
3.99236 0.0716106 -0.482894 3.99011 0.0281938 -0.484059 3.99304 0.115011 -0.481578 
3.99214 0.15832 -0.480081 3.97438 0.0303551 -0.478842 3.96864 0.0311428 -0.476941 
3.97341 0.0688862 -0.476791 4.00893 0.142903 -0.486041 3.97412 0.489507 -0.443138 
3.98183 0.451 -0.442958 3.98899 0.412383 -0.442791 3.98801 0.451612 -0.408522 
3.99517 0.413006 -0.408356 4.00181 0.374311 -0.408204 3.99898 0.413418 -0.373568 
4.00562 0.374728 -0.373416 4.00608 0.331973 -0.37342 4.00773 0.374992 -0.338482 
4.0082 0.33224 -0.338484 4.00917 0.332401 -0.303496 4.00799 0.289486 -0.338502 
4.00897 0.289649 -0.303513 4.0092 0.289741 -0.26851 4.00806 0.246906 -0.303546 
4.00829 0.247 -0.268542 4.00806 0.24705 -0.233536 4.00664 0.204279 -0.268591 
4.00641 0.20433 -0.233584 4.00591 0.204355 -0.19858 4.00396 0.161649 -0.233652 
4.00346 0.161675 -0.198646 4.00282 0.161686 -0.163643 4.00016 0.119053 -0.198732 
3.99952 0.119065 -0.163727 3.9988 0.119069 -0.128723 3.99535 0.0765252 -0.167201 
3.9946 0.0765306 -0.130622 3.99386 0.0765321 -0.0958403 3.9895 0.0341098 -0.139729 
3.9887 0.0341115 -0.102026 3.98789 0.0341119 -0.0643224 3.99308 0.0765324 -0.0597114 
3.9973 0.119071 -0.0587157 3.99218 0.0753525 -0.0244833 3.9964 0.117494 -0.0237153 
3.9996 0.158139 -0.0236435 3.99492 0.10961 0.0112726 3.99808 0.147478 0.011341 
4.00054 0.185399 0.0113943 4.00054 0.199629 0.0464097 4.00235 0.223355 0.0114336 
4.00218 0.204373 -0.0189165 4.00404 0.250652 -0.0235431 4.00304 0.204373 -0.058582 
4.0006 0.161693 -0.0586391 4.00135 0.161693 -0.0936406 3.99805 0.119071 -0.0937196 
4.0021 0.161691 -0.128641 4.00454 0.204371 -0.12858 4.00526 0.204367 -0.16358 
4.00691 0.247085 -0.163535 4.00756 0.247074 -0.198534 4.00847 0.289815 -0.198506 
4.00897 0.289791 -0.233507 4.00917 0.332541 -0.233494 4.0094 0.332492 -0.268496 
4.00894 0.375241 -0.268497 4.00871 0.37515 -0.303496 4.00208 0.413836 -0.303647 
4.0011 0.413679 -0.338634 3.99395 0.452276 -0.338799 3.99183 0.452018 -0.373734 
3.98412 0.49051 -0.373913 3.98031 0.49011 -0.408702 3.97204 0.528491 -0.408896 
3.96585 0.527899 -0.443333 3.95698 0.566159 -0.443544 3.94749 0.60427 -0.443772 
3.93748 0.642217 -0.443363 3.92705 0.679971 -0.441663 3.93341 0.680534 -0.404512 
3.94367 0.64278 -0.40869 3.95369 0.604842 -0.409333 3.94753 0.643163 -0.372771 
3.95751 0.605226 -0.37454 3.96699 0.56713 -0.374315 3.95964 0.60547 -0.339601 
3.96912 0.567378 -0.339377 3.97798 0.529137 -0.33917 3.9701 0.567528 -0.304386 
3.97896 0.529289 -0.30418 3.98722 0.490918 -0.303988 3.97919 0.529376 -0.269176 
3.98745 0.491006 -0.268986 3.99516 0.45252 -0.26881 3.98722 0.491053 -0.233982 
3.99493 0.452567 -0.233807 4.00208 0.413974 -0.233645 3.99443 0.45259 -0.198807 
4.00158 0.413998 -0.198646 4.00821 0.375313 -0.198498 4.00094 0.414008 -0.16365 
4.00757 0.375323 -0.163502 4.00803 0.332576 -0.163497 4.00685 0.375327 -0.128508 
4.00731 0.332579 -0.128502 4.00656 0.332581 -0.0935081 4.0071 0.28983 -0.128512 
4.00636 0.289831 -0.0935163 4.0056 0.289831 -0.05852 4.00545 0.247091 -0.0935404 
4.00469 0.247091 -0.0585427 4.00486 0.291415 -0.0235239 4.00505 0.333768 -0.0235187 
4.00419 0.299331 0.0114735 4.00427 0.337331 0.0114753 4.00383 0.375329 0.0114656 
4.00351 0.340181 0.0458858 4.00312 0.375329 0.044126 3.99748 0.408216 0.045755 
3.9972 0.414013 0.0113219 3.99796 0.414013 -0.0236721 3.99004 0.452604 0.0111668 
3.9908 0.452604 -0.0238282 3.99156 0.452604 -0.0588234 3.9831 0.49109 -0.0239963 
3.98386 0.49109 -0.0589927 3.98462 0.49109 -0.0939896 3.97559 0.529458 -0.0591746 
3.97635 0.529458 -0.0941728 3.9771 0.529457 -0.12917 3.96749 0.567694 -0.0943695 
3.96824 0.567693 -0.129368 3.96896 0.56769 -0.164368 3.95876 0.60578 -0.129581 
3.95948 0.605776 -0.164583 3.96012 0.605768 -0.199585 3.9494 0.643691 -0.16818 
3.95003 0.643682 -0.202511 3.95147 0.64006 -0.234803 3.93938 0.681389 -0.216226 
3.93979 0.681352 -0.253933 3.9507 0.643624 -0.267144 3.96085 0.605703 -0.2696 
3.95052 0.643546 -0.301481 3.96062 0.605618 -0.304608 3.97033 0.567614 -0.26938 
3.9701 0.567659 -0.234373 3.97896 0.529422 -0.23417 3.97846 0.529444 -0.199168 
3.98673 0.491075 -0.198981 3.98608 0.491085 -0.163983 3.99378 0.4526 -0.16381 
3.99306 0.452604 -0.128814 4.00022 0.414012 -0.128655 3.99947 0.414013 -0.0936612 
4.0061 0.375328 -0.0935149 4.00535 0.375329 -0.0585208 4.00581 0.332581 -0.058513 
4.00459 0.375329 -0.0235276 3.99872 0.414013 -0.0586663 3.99232 0.452605 -0.0938193 
3.98536 0.491089 -0.128985 3.97781 0.529454 -0.164169 3.9696 0.56768 -0.199369 
3.96062 0.605746 -0.234591 3.94957 0.643399 -0.338049 3.93904 0.681142 -0.329339 
3.93713 0.680908 -0.366994 3.93978 0.681278 -0.29164 3.93874 0.681405 -0.178526 
3.93799 0.681411 -0.140826 3.94866 0.643695 -0.131605 3.94792 0.643696 -0.0968261 
3.95801 0.605781 -0.0945804 3.95726 0.605781 -0.0595789 3.96674 0.567694 -0.0593697 
3.96598 0.567694 -0.0243704 3.97483 0.529458 -0.0241768 3.97408 0.529458 0.0108208 
3.98234 0.49109 0.0109999 3.98512 0.473785 0.0460722 3.99173 0.439752 0.0462146 
3.99145 0.43718 0.0812197 3.99707 0.406283 0.0805617 4.00241 0.375329 0.0767863 
3.99633 0.406283 0.114584 4.0017 0.375328 0.109447 4.00201 0.34113 0.114707 
4.00099 0.375328 0.142107 4.00124 0.341129 0.149896 4.00047 0.341125 0.183529 
4.0012 0.306929 0.151455 4.0004 0.306924 0.18645 3.99953 0.306913 0.221442 
3.99996 0.272727 0.186446 3.99909 0.272716 0.221439 3.99807 0.272691 0.256428 
3.99819 0.238527 0.221426 3.99717 0.238503 0.256417 3.99588 0.238451 0.2914 
3.99579 0.204331 0.256397 3.9945 0.204278 0.291381 3.99275 0.204179 0.326345 
3.99261 0.17013 0.291353 3.99086 0.17003 0.326319 3.98837 0.169854 0.361238 
3.98843 0.135914 0.326283 3.98594 0.135736 0.361204 3.9823 0.135441 0.396023 
3.98293 0.101663 0.36116 3.97929 0.101364 0.395981 3.97397 0.100893 0.430579 
3.9749 0.0672828 0.401717 3.96942 0.0667714 0.435304 3.96286 0.06659 0.464041 
3.9598 0.0324117 0.458971 3.94751 0.0311428 0.497889 3.95229 0.0688862 0.497946 
[...]
CELL_DATA 3350
FIELD FieldData 6
B.n 1 3350 double
0.65640995509 0.68735702153 0.67661384352 0.66625078155 0.68788037494 0.6855263066 0.68014223306 0.69386012648 0.69394788702 
0.68858701944 0.70130466137 0.70145255418 0.69612827943 0.9074561305 0.90775326421 0.90401213419 0.91468248628 0.91505119602 
0.91142299764 0.92277539942 0.92322920375 0.91974140867 0.93200900345 0.92709068811 0.94031774803 0.93981629223 0.93495162653 
0.94937126175 0.94892073435 0.94409482124 0.96000463923 0.95960015081 0.954802005 0.97262210391 0.97225737344 0.96745169114 
0.96713259058 0.97087650932 0.95320788978 0.95784755518 0.95814278664 0.94237003135 0.94702360866 0.94735245505 0.93306319325 
0.93774494789 0.93811107395 0.9250142966 0.92973272768 0.93013994439 0.91760383142 0.92128276269 0.92095070029 0.9096976661 
0.91348165503 0.91321003951 0.90263162522 0.90650220364 0.90628566386 0.69621320107 0.70148882275 0.7021338906 0.68759752257 
0.69581661766 0.69906860053 0.67043556192 0.70046180866 0.68823104991 0.70504765673 0.6964518721 0.90543437895 0.90559483601 
0.90163713421 0.91213412769 0.91233042735 0.90843766265 0.91961796364 0.9198605402 0.91603676064 0.9280844257 0.92838364584 
0.92350274176 0.93650545376 0.93623756341 0.93168884785 0.94588329154 0.94564263869 0.94110956085 0.95678158913 0.95656536415 
0.95203771238 0.96959746197 0.96572221248 0.96595596778 0.94089707277 0.94481078602 0.93068296138 0.93514242376 0.93533894929 
0.92240126671 0.92687486769 0.92709461279 0.91490009325 0.91882896502 0.91864961522 0.90752178989 0.91149256262 0.91423659278 
0.92615647389 0.9222057934 0.93144993271 0.92323700543 0.91511935795 0.90770089242 0.90105609661 0.69655380451 0.9018324672 
0.90867903687 0.91633457539 0.9246515783 0.93273840497 0.94207850202 0.952946839 0.97061078867 0.96907135564 0.96950996491 
0.97453788575 0.97503501591 0.9569887716 0.96203097593 0.96258529352 0.94646429124 0.95153291795 0.95934446778 0.97765694764 
0.97232864487 0.97172625006 0.95444422114 0.9564987223 0.94369550551 0.94591665558 0.93450603447 0.93693499691 0.92659396135 
0.91800786808 0.91187445117 0.91670802899 0.90600758664 0.90946673583 0.69631992749 0.69618222848 0.70083503695 0.7012053667 
0.68840138865 0.6938149608 0.6936869003 0.67986922281 0.68533554393 0.68525299547 0.67019817793 0.67574338514 0.67565588947 
0.65904710708 0.6647137048 0.66087117301 0.65045591823 0.64893754037 0.63848672013 0.64121000031 0.62826856102 0.61760651861 
0.6177104318 0.61768413897 0.61360143429 0.63463478622 0.63623941006 0.63008646998 0.65137655479 0.65138753794 0.64550852446 
0.66423397704 0.66429193901 0.65853250818 0.67528059384 0.67538558724 0.66973565402 0.6849239948 0.68329415212 0.68097425526 
0.69326650999 0.69084542427 0.69111713626 0.68247230882 0.68385647219 0.67735205635 0.66749229524 0.67541143281 0.65706263537 
0.65430785021 0.65912375878 0.63195643397 0.65417873971 0.6493408156 0.62605248601 0.63534655189 0.63437219331 0.60902147215 
0.61591466095 0.61595638721 0.61047188037 0.61046635026 0.6354419631 0.61716601281 0.61719113096 0.63545562424 0.62918868194 
0.65070402948 0.6507266576 0.64468653543 0.66362284719 0.62920264761 0.60829237993 0.61387642326 0.61384700751 0.60325755505 
0.6307542326 0.6433765673 0.62480961052 0.66605242282 0.67005994472 0.67112632535 0.65863430533 0.64556177356 0.63009074481 
0.61152185478 0.65778493883 0.64951228943 0.63231922305 0.64612551279 0.65913284473 0.67027746156 0.67999498214 0.68888456081 
0.70050001425 0.90907510402 0.91002813641 0.90437948622 0.90290285908 0.69630073089 0.69633489194 0.68873440816 0.68884127543 
0.6802278565 0.6799807367 0.67056236219 0.65872196543 0.66884562545 0.67670809979 -0.0010769266697 -0.034108126347 -0.022399847284 
-0.052940383567 0.031168681906 0.043611740198 0.014529065379 0.077742711242 0.090681399516 -0.5246586831 -0.48231408502 -0.4674276006 
-0.43729330174 -0.47189004497 -0.4568558072 -0.43632032547 -0.47414549219 -0.45900278459 -0.44547195968 -0.48724503693 -0.4720466956 
-0.46333673058 -0.50999769696 -0.49475469406 -0.48918457713 -0.54207881934 -0.52681407302 -0.52313197199 -0.58448824802 -0.56898980524 
-0.56639686512 -0.63878354854 -0.62333811903 -0.62116707268 -0.634182582 -0.56217615727 -0.5593368733 -0.57600868983 -0.51522035427 
-0.50769313423 -0.54175724996 -0.48704298135 -0.49604549801 -0.45881433928 -0.45796658497 -0.44804556982 -0.4391900074 -0.48992700219 
-0.4723626134 -0.47669256393 -0.52974282792 -0.51634350798 -0.51856684198 -0.53390771375 -0.48094410838 -0.4836453327 -0.49896095504 
-0.45225044043 -0.45598073355 -0.47126954499 -0.42943456489 -0.43506790727 -0.45033356312 -0.41237943058 -0.42118359213 -0.43640966777 
-0.40168942488 -0.41533211525 -0.43044476813 0.18942527634 0.16830753535 0.15477110125 0.12338798 0.15289701197 0.13960043165 
0.094165409982 0.12560503104 0.11265898675 0.049047548144 0.082687266567 0.070248935834 0.10693348923 0.021229852855 0.0095704620681 
0.049207561757 0.035524434943 0.083302308937 0.069072173577 0.1192330757 0.11890065717 0.19051059657 0.22534804879 0.15830650728 
0.21691570074 0.23652028864 0.18522381412 0.23098922152 0.24424515172 0.20347772417 0.23495868027 0.24847844749 0.21144468003 
0.23255918825 0.24624578679 0.21221263485 0.22604376368 0.2398570747 0.2083065295 0.21723179213 0.23116077848 0.20162566305 
0.20739590257 0.22139654593 -0.39896020838 -0.3951549608 -0.37977827382 -0.3769912282 -0.41182104116 -0.3964408393 -0.39415606181 
-0.43216536679 -0.4167550079 -0.41657731063 -0.4252101225 -0.38904067126 -0.3911005698 -0.39470945762 -0.36534354019 -0.36503062393 
-0.3741658702 0.24168411295 0.23063256077 0.22730274117 0.25673197017 0.24249120559 0.24023787551 0.27172210265 0.2575213961 
0.25532265551 0.28922985847 0.27511338451 0.27278775557 0.30967455184 0.29562300165 0.29285227245 0.33344200142 0.31946950795 
0.31569428125 0.36044502728 0.34709282136 0.34287371798 0.38842289938 0.37598724319 0.38006388081 0.33055183078 0.32062526743 
0.32690101104 0.284285635 0.26320082668 0.29791723706 0.25723030288 0.27101952184 0.28479045047 0.24781699116 0.25670198811 
0.27058544884 0.23658826246 0.24232553813 0.25631981595 0.22478999485 0.22864209264 0.24269351434 0.21318162152 0.21604360479 
0.23016860994 0.23255095223 -0.38806570101 -0.37264976838 -0.37112596491 -0.38331273749 0.23698973234 0.22278861627 0.22054562608 
0.25002015089 0.23584757277 0.23348289455 0.26499086254 0.25090703263 0.24808879794 0.28203075631 0.26798893957 0.26416907147 
0.3011262105 0.28719649483 0.28151124034 0.32212347517 0.30828694893 0.29944265801 0.24554495937 0.26015991149 0.27630826096 
0.2936568875 0.31168340953 0.31322639172 0.29416428559 0.26894722622 0.33749952959 0.296091547 0.28058620715 0.33874909107 
0.35123239703 0.35050222866 0.3424318278 0.383446112 0.3512522382 0.40096419391 0.3816624315 0.38938524724 0.40275713623 
0.3522594345 0.35527395942 0.36925705681 0.32415661281 0.32644212319 0.34052131431 0.29996593692 0.30212665126 0.31627606529 
0.27941995823 0.28162723659 0.29584051329 0.26198266436 0.26823557163 0.26736038284 0.23711459688 0.24704310663 0.25692927662 
0.2331771213 0.2363985091 0.24796651006 -0.36710857638 -0.36455752257 -0.35183936939 -0.34790651292 -0.3755255548 -0.36298565362 
-0.35780050112 -0.38762821993 -0.37487337354 -0.36826231357 -0.4000428503 -0.3872807499 -0.3771627644 -0.41165155472 -0.39891145481 
-0.38336370386 -0.42109578113 -0.40839086238 -0.38475518169 -0.42643952426 -0.41383034779 -0.37857307137 -0.42512928491 -0.41263503629 
-0.36111928706 -0.39754268042 -0.40710328326 -0.30187697417 -0.36456890883 -0.31572455432 -0.28348552768 -0.2390202494 -0.17394200668 
-0.29368859188 -0.29750163144 -0.24780424444 -0.32494138282 -0.33729495303 -0.29554522544 -0.34709518099 -0.35967272072 -0.32183149858 
-0.35720856501 -0.36991465858 -0.33531066143 -0.35905753216 -0.37180985668 -0.33998489892 -0.35561255246 -0.36837136945 -0.33779468154 
-0.34796878325 -0.36162598009 -0.33240458192 -0.3431163903 -0.35484087418 0.25890015781 0.25671641623 0.24412659783 0.2416582348 
0.26501322021 0.25321016556 0.25052778433 0.27500439243 0.26328194379 0.25775533862 0.28547821777 0.27902288172 0.25903655654 
0.29408567966 0.32002430454 0.30648676166 0.34702530688 0.33284190512 0.3306713772 0.37580903033 0.36169713896 0.35953845081 
0.41041679765 0.39628590157 0.39354398998 0.41257464805 0.4005901036 0.40286971575 0.41703651708 0.3660074496 0.3868703807 
0.33221227199 0.34991993526 0.31427970037 0.32210105455 0.29122981582 0.29557460466 0.30730358652 0.27981513971 0.2825307941 
0.29428518391 0.26845911649 0.27181012145 0.28362948388 0.25934427629 0.26313995849 0.2757346439 0.28234070593 0.25447239197 
0.2753825267 0.27073629595 -0.33517730586 -0.34310642163 -0.30992880948 -0.31177930535 -0.33427093088 -0.31706493849 -0.30066237619 
-0.32642189265 -0.31370495064 -0.27824588223 -0.31015394159 -0.2975186516 -0.24592489772 -0.28054433162 -0.26810389128 -0.19255101227 
-0.2322160912 -0.22497643595 -0.11320850928 -0.16509225569 -0.17955241012 -0.16089903724 -0.1101703999 -0.10807915888 -0.067588656906 
-0.17337099561 -0.18296604452 -0.1501769063 -0.22439260422 -0.23685395217 -0.21266580609 -0.25411903911 -0.27315263465 -0.25568355316 
-0.26071098251 -0.29952476082 0.35056060446 0.29939721982 0.29852993171 0.26246102192 0.29436279065 0.28246799987 0.30769654965 
0.2974843974 0.28561724679 0.27893272669 0.30470211581 0.29287674161 0.28834691559 0.31581736685 0.3040390613 0.30072463866 
0.33010591352 0.318384539 0.3157104823 0.34738254433 0.33572866248 0.37015115039 0.36677352846 0.36151858928 0.39653992191 
0.3865330151 0.38516672841 0.42473688411 0.41228860227 0.42758870301 0.41744810313 0.42054859867 0.43257910711 0.39152278134 
0.39511016531 0.40658384225 0.36919377361 0.37363951258 0.38542032232 0.35101017533 0.35761729388 0.36946720733 0.33782165915 
0.34794891014 0.35982231637 0.33050469473 0.34603116718 0.35795688376 0.33059887698 0.35400810276 0.36598174027 0.34034314836 
0.37469371352 0.38664977332 0.35747992534 0.41727542361 0.42231567509 0.38552389019 0.48514312933 0.47867278637 -0.11186499618 
-0.03733569892 -0.01838260291 -0.049843958619 -0.03601962896 -0.064645277214 -0.058694120078 -0.13031193335 -0.14666300569 -0.13124298071 
-0.17181576498 -0.21134149441 0.57703073991 0.5573238474 0.58323620885 0.56678831501 0.4791729249 0.50678690649 0.49115581682 
0.42618430038 0.45155832143 0.43964831001 0.39111425444 0.41827725187 0.40631663652 0.3721303785 0.40136972085 0.38940398778 
0.36612293102 0.39767846724 0.38578414153 0.37034678905 0.40465482118 0.3927954549 0.38273246904 0.4204267525 0.40886746769 
0.40161564196 0.44248067919 0.43195887335 0.4253020883 0.45182358405 0.44053517506 0.45225115892 0.46749302967 0.42211255727 
0.43659888018 0.45229312993 0.41086701692 0.4340079806 0.44595697067 0.41172320945 0.44567601169 0.45766730851 0.42630035421 
0.47444291461 0.48640439236 0.4574721174 0.51869606198 0.52086559899 0.51326052657 0.59212560779 0.61908094735 0.59313752013 
0.62938610859 0.63488042839 0.58154333814 0.5879348876 0.54570958415 0.55684287761 0.4965469522 0.53033291601 0.51838811716 
0.47063884668 0.52722999906 0.49283731667 0.46970116766 0.54815140691 0.48248671222 0.48442953526 0.51762891401 0.59196912517 
0.49762531164 0.77543512524 0.57145589762 0.59101493422 0.61908679142 0.60908987657 0.64226268581 0.69162833971 0.69972153915 
0.72816800547 0.74603609085 0.6366894709 0.53838827558 0.58767358501 0.68666919528 0.6707103898 0.54581794801 0.50557934663 
0.4797694892 0.46735169363 0.47492136813 0.43045512446 0.42004608925 0.42088949515 0.43541036738 0.46662715278 0.51449025452 
0.5842881074 0.44023057369 0.3584714592 0.36642053885 0.49365096592 0.37756412388 0.33631856353 0.32961841885 0.29804102841 
0.32603603876 0.31408541571 0.43527257249 0.34949289281 0.40024152522 0.33978197844 0.32421750629 0.31231781466 0.30213209398 
0.3295640193 0.31770928492 0.31106376614 0.3404425619 0.32864745047 0.3241653237 0.35580812815 0.34407017694 0.34079532309 
0.3752041054 0.36351854277 0.38131069544 0.33972805207 0.37530717886 0.34707147837 0.37956722259 0.360276245 0.39200831768 
0.37846606451 0.41177446118 0.40124928916 0.39841372104 0.43734873086 0.38666475763 0.36087520157 0.35004569359 0.33340889573 
0.320335087 0.31137272905 0.2984914511 0.31493010349 0.2983753746 -0.23254340687 -0.21265062144 -0.16419938478 -0.098123212731 
-0.21017338579 -0.25626050615 -0.2885054117 -0.30273999534 -0.30093865078 0.30369051554 0.27223752775 0.28818802833 0.29762600135 
0.3100092891 0.32501797209 0.32953589331 0.34271501379 0.41541772533 0.37796661633 0.34943671566 0.31117342545 0.30717025074 
0.28911917724 0.27774142455 0.26811755967 0.25300791036 -0.35440502532 -0.34818275766 -0.35021021183 -0.34559562123 -0.33217602307 
-0.3059101531 -0.27026272796 -0.24753196745 -0.33979465475 -0.61666960677 -0.28251676335 -0.50923881389 -0.48539940263 -0.44155697418 
-0.49215099091 -0.49852225049 -0.45004122189 -0.47355933936 -0.48619387985 -0.43978498876 -0.45522751095 -0.46790584627 -0.42636223165 
-0.4364078487 -0.44911614944 -0.4115090736 -0.41806204689 -0.43077374625 -0.39638322649 -0.40082878601 -0.41355890804 -0.38182874334 
-0.38511666841 -0.39783430246 -0.36843003854 -0.37114987862 -0.38384430062 -0.38571492817 -0.35883396377 -0.37701065639 -0.40683458225 
-0.39217484194 -0.39016798431 -0.42185837373 -0.40914947456 -0.40649956984 -0.44087085533 -0.42817213144 -0.42492618288 -0.46250067314 
-0.44979950593 -0.44539247417 -0.4868758947 -0.47418188623 -0.46768357884 -0.51397006103 -0.5012994344 -0.49133178231 -0.54365684662 
-0.53148312821 -0.51363976153 -0.57021046604 -0.56736353869 -0.50615268482 -0.59436019619 -0.5796128396 -0.59116739333 -0.60504635641 
-0.54374538866 -0.54984633031 -0.56292820247 -0.51016170262 -0.51451312247 -0.52716273365 -0.48095398261 -0.48415667177 -0.49681688366 
-0.45539305018 -0.45801432849 -0.47069701214 -0.43314187384 -0.43500517675 -0.45145927757 -0.41690113451 -0.41694540107 -0.43862815911 
-0.40612154955 -0.40333327046 -0.47059538846 -0.4682699773 -0.50974710061 -0.49098982041 -0.48909342807 -0.53521411365 -0.52262691031 
-0.52005653993 -0.57253669259 -0.55981857178 -0.55689877592 -0.61814478372 -0.60426884389 -0.6016802001 -0.61992305866 -0.61085467146 
-0.61332755081 -0.62542134525 -0.56478826806 -0.56691009595 -0.58145032788 -0.53665336059 -0.53851896711 -0.57415912044 -0.56566813802 
-0.63296217754 -0.62825574478 -0.6175764391 -0.61577621257 -0.61797079756 -0.57416653585 -0.62719203491 -0.57489171141 -0.5339872476 
-0.50306503435 -0.49942010916 -0.53034299958 -0.56655245257 -0.60917417328 -0.55357063737 -0.5204357692 -0.49125939964 -0.46572857414 
-0.44350595373 -0.42279260945 -0.40583393419 -0.37795191483 -0.40048738417 -0.41683191835 -0.43520019555 -0.45564306703 -0.47791089721 
-0.50157938514 -0.52929389296 -0.58493587614 -0.37153183354 -0.48256114814 -0.38887619393 -0.46033731893 -0.39501924099 -0.4500210526 
-0.39362150011 -0.43659998078 -0.38740379457 -0.42173805411 -0.37851961647 -0.40663245261 -0.36927401767 -0.39209489402 -0.36008171721 
-0.37886254599 -0.35651439593 0.25034412035 0.25976312588 0.27405510165 0.30928317668 0.31847143445 0.34266958439 0.37158583853 
0.40643696015 0.3277905237 0.36490509117 0.30493200141 0.3361991759 0.28483711022 0.31198818859 0.26734477117 0.29141719352 
0.25225273337 0.27396462841 0.23926081861 0.26231350466 0.24391804554 -0.37199911094 -0.38111699464 -0.39465910142 -0.4054626605 
-0.42450929885 -0.45870031588 -0.44532661391 -0.44758252073 -0.4629497237 -0.42105920242 -0.42380502425 -0.43914500442 -0.40115713225 
-0.40493412993 -0.42025077725 -0.40748213337 -0.43443518138 -0.39037305723 -0.41459353889 -0.38548805096 -0.39118187444 -0.40644992968 
0.22527508429 0.21377510232 0.20483134 0.19098007595 0.23691963984 0.22054098772 0.2066922799 0.19298742532 0.17187294201 
0.20343048072 0.18991685328 0.15848708102 0.19248513126 0.17920955644 0.13361054731 0.17052115351 0.15759526292 0.24876861217 
0.22454527814 0.26006217968 0.22394452727 0.26958348875 0.21623522935 0.27574489696 0.19829233044 0.13391603224 0.27228347071 
0.25865591071 0.16365840071 0.12153913535 0.093548451199 0.14660506856 0.17115802397 0.18431904531 0.17712326566 -0.41528847147 
-0.42592286001 -0.44290305304 -0.46567741061 -0.49433005701 -0.49209294739 -0.45684712772 -0.43494709467 -0.44743337814 -0.46844144034 
-0.48339035613 -0.52892500156 -0.5273841442 -0.57213265818 -0.57750315929 -0.63197025516 -0.57964625442 -0.64071309539 -0.62911639266 
-0.63087350845 -0.64999065355 -0.57505893459 -0.57983114205 -0.59178838075 -0.53403887348 -0.54265335874 -0.55784552984 -0.50503984889 
-0.51843690682 -0.53357268266 -0.48702586508 -0.50735950437 -0.52239652176 -0.48081274219 -0.51064118104 -0.52551480886 -0.48795120546 
-0.53010665675 -0.54475479442 -0.60155005063 -0.56750500392 -0.5810783655 -0.65148283259 -0.056191765188 -0.067884665068 -0.63554328549 
-0.66536403139 -0.65756054266 -0.69466049779 -0.62130442412 -0.60965005574 -0.55324232095 -0.59435397061 -0.57969741581 -0.53811786488 
-0.58432887621 -0.56943147382 -0.53997659942 -0.59258079091 -0.57755217684 -0.55748687859 -0.61562041721 -0.60346274917 -0.59111079835 
-0.65519086073 -0.64140542197 -0.68476349441 -0.64470444549 -0.68104034303 -0.68500811634 -0.6201081069 -0.65435556652 -0.66440662759 
-0.60787000093 -0.64869237218 -0.66333740849 -0.611426536 -0.66576207154 -0.66948842732 -0.65520361958 -0.6903348109 -0.73084795884 
-0.7037005313 -0.76127372681 -0.7517184392 -0.79430891091 -0.7711025205 -0.70662644242 -0.76099677527 -0.74937313633 -0.68989486085 
-0.75173409418 -0.75479903161 -0.68790757324 -0.83213507663 -0.78844478032 -0.87434918416 -0.88206523432 -0.8222067553 -0.82701930048 
-0.71532058879 -0.71385337386 -0.74059092884 -0.64223799065 -0.62178972782 -0.62551861602 -0.65149384212 -0.66664720435 -0.58518175412 
-0.56735823319 -0.55203569352 -0.55378514222 -0.57115921509 -0.60034320542 -0.65088868216 -0.53658536241 -0.58749260516 -0.50266694578 
-0.54761205555 -0.47687506406 -0.51866171715 -0.45910247328 -0.50071321311 -0.45000384536 -0.49458707872 -0.45105441364 -0.50187463993 
-0.51061051683 0.13607518005 0.02773658014 0.10712401482 -0.039335843418 0.062360794582 -0.014741681675 -4.058976056 -4.0597570181 
-4.0600074165 -4.0614401708 -4.0623606221 -4.0626304335 -4.0643233711 -4.065371431 -4.0656209836 -4.0676066958 -4.0688168646 
-4.068975623 -4.0712932783 -4.0726873061 -4.0726387102 -4.0753533302 -4.0769610889 -4.0765154906 -4.0797015297 -4.0815795557 
-4.0804599958 -4.0841829347 -4.0864107294 -4.084226649 -4.082394682 -4.078689115 -4.074793809 -4.0735327323 -4.0703939512 
-4.0640337698 -4.0638888154 -4.0612343989 -4.0516336194 -4.0540593147 -4.0518107067 -4.0386414532 -4.046372827 -4.0444162806 
-4.0356512668 -4.0340171173 -4.0464960025 -4.0421499418 -4.040739889 -4.0497719301 -4.0475627654 -4.0537141652 -4.0538128061 
-4.0552811106 -4.0567264508 -4.0505081686 -4.0522335918 -4.0546246695 -4.045344894 -4.056554268 -4.0562320118 -4.0625124967 
-4.0648074186 -4.065563935 -4.0694904057 -4.0722055631 -4.0734539178 -4.0757010602 -4.0740290147 -4.071301906 -4.0724619498 
-4.0710482099 -4.0687122909 -4.0691782202 -4.0679644072 -4.0659768511 -4.0660392828 -4.0649852034 -4.0632780079 -4.0631324695 
-4.06222969 -4.0607702189 -4.0605341798 -4.0597302663 -4.0602237053 -4.0603589373 -4.0611601218 -4.0610807183 -4.0625481947 
-4.0634705212 -4.0629811457 -4.0647047423 -4.0657760378 -4.064582807 -4.0665784317 -4.0678562404 -4.0655677003 -4.0647291555 
-4.062739303 -4.0587933687 -4.0614875661 -4.0597600696 -4.062080807 -4.0610834051 -4.0596206332 -4.0608404284 -4.0600071805 
-4.0591005081 -4.0567566416 -4.0638037404 -4.0623008399 -4.0605171989 -4.0626260349 -4.0651918763 -4.0677685468 -4.0701905914 
-4.0679073086 -4.0607897859 -4.0584411987 -4.0592318071 -4.0577695797 -4.043765677 -4.0317833437 -4.0404026511 -4.0511746663 
-4.0418154127 -4.0481234404 -4.0472854802 -4.0409043765 -4.0499257567 -4.052580977 -4.0449644071 -4.0480441958 -4.0574244726 